 VARIABLES = "X",  "Y",  "P",  "T",  "D",  "V", "H",  "S", "U", "C", "K", "MU" 
 ZONE N=        4458 , E=        8644 , F=FEPOINT, ET=TRIANGLE
        0.00000        0.16822   400205.88532      487.51383       29.29403        0.03414   256508.43180      544.22546   242846.74303      104.35220        0.02925     0.9833E-05
        0.00000        0.00000   183494.70438      450.00000       29.29403        0.03414   113622.83393      255.44702   107358.93918       53.23241        0.02687     0.8966E-05
        1.00000        0.46765  1221642.45312      554.28659      130.23027        0.00768   357808.28493      713.29674   348427.65121       59.43908        0.05317     0.1400E-04
        1.00000        0.00000   183494.70438      450.00000      130.23027        0.00768    63768.92531      144.66056    62359.92335       14.00371 -9999990.00000    -0.1000E+02
        0.00000        0.15833   383709.99167      485.30714       29.29403        0.03414   247134.31250      526.11118   234035.73830       87.83216        0.02910     0.9783E-05
        0.00000        0.14843   367738.16945      483.10044       29.29403        0.03414   237893.70859      508.15314   225340.35891       85.39485        0.02895     0.9733E-05
        0.00000        0.13854   352278.66249      480.89374       29.29403        0.03414   228783.84511      490.34784   216758.23124       82.99364        0.02881     0.9682E-05
        0.00000        0.12864   337319.87466      478.68705       29.29403        0.03414   219802.02318      472.69190   208287.05223       80.62869        0.02866     0.9632E-05
        0.00000        0.11875   322850.45971      476.48035       29.29403        0.03414   210945.66979      455.18211   199924.63621       78.30014        0.02852     0.9581E-05
        0.00000        0.10885   308859.24911      474.27365       29.29403        0.03414   202212.29373      437.81540   191668.87323       76.00811        0.02837     0.9530E-05
        0.00000        0.09895   295335.27287      472.06696       29.29403        0.03414   193599.49694      420.58881   183517.73970       73.75273        0.02823     0.9479E-05
        0.00000        0.08906   282267.69754      469.86026       29.29403        0.03414   185104.93372      403.49948   175469.25975       71.53410        0.02809     0.9428E-05
        0.00000        0.07916   269645.90106      467.65357       29.29403        0.03414   176726.35732      386.54467   167521.54921       69.35231        0.02795     0.9377E-05
        0.00000        0.06927   257459.41105      465.44687       29.29403        0.03414   168461.57980      369.72172   159672.77765       67.20744        0.02781     0.9326E-05
        0.00000        0.05937   245697.92439      463.24018       29.29403        0.03414   160308.48410      353.02810   151921.17972       65.09958        0.02767     0.9275E-05
        0.00000        0.04948   234351.25459      461.03348       29.29403        0.03414   152264.98674      336.46128   144265.01967       63.02878        0.02754     0.9224E-05
        0.00000        0.03958   223409.39809      458.82678       29.29403        0.03414   144329.08306      320.01887   136702.63433       60.99510        0.02740     0.9172E-05
        0.00000        0.02969   212862.48172      456.62009       29.29403        0.03414   136498.81023      303.69850   129232.39791       58.99859        0.02726     0.9121E-05
        0.00000        0.01979   202700.78075      454.41339       29.29403        0.03414   128772.25971      287.49791   121852.73383       57.03928        0.02713     0.9069E-05
        0.00000        0.00990   192914.67446      452.20670       29.29403        0.03414   121147.54271      271.41481   114562.08173       55.11722        0.02700     0.9018E-05
        0.99011        0.46653  1217031.66401      554.03526      129.23190        0.00774   357540.74220      712.87809   348123.31801       57.86540        0.05295     0.1395E-04
        0.98022        0.46540  1212425.10921      553.78331      128.23357        0.00780   357277.64086      712.46770   347822.82264       58.09549        0.05274     0.1390E-04
        0.97033        0.46426  1207811.82841      553.53015      127.23530        0.00786   357016.96946      712.06212   347524.22791       58.32796        0.05253     0.1385E-04
        0.96044        0.46312  1203180.84009      553.27516      126.23713        0.00792   356756.68184      711.65781   347225.56469       58.56255        0.05231     0.1380E-04
        0.95055        0.46196  1198521.47472      553.01774      125.23908        0.00798   356494.76168      711.25129   346924.89352       58.79897        0.05210     0.1375E-04
        0.94066        0.46080  1193823.13217      552.75729      124.24119        0.00805   356229.17208      710.83905   346620.25652       59.03690        0.05188     0.1370E-04
        0.93078        0.45961  1189075.40501      552.49318      123.24350        0.00811   355957.87928      710.41756   346309.70012       59.27605        0.05167     0.1365E-04
        0.92090        0.45841  1184268.04072      552.22483      122.24605        0.00818   355678.84430      709.98330   345991.26698       59.51609        0.05145     0.1360E-04
        0.91102        0.45718  1179390.94519      551.95161      121.24886        0.00825   355390.02312      709.53271   345662.99614       59.75668        0.05124     0.1356E-04
        0.90114        0.45593  1174435.33521      551.67299      120.25198        0.00832   355089.59189      709.06264   345323.13875       59.99754        0.05102     0.1351E-04
        0.89127        0.45466  1169395.99233      551.38889      119.25542        0.00839   354776.66777      708.57157   344970.85758       63.15584        0.05081     0.1346E-04
        0.88140        0.45336  1164281.18143      551.09942      118.25917        0.00846   354452.49357      708.06162   344607.32758       63.50807        0.05059     0.1342E-04
        0.87153        0.45204  1159099.05966      550.80469      117.26324        0.00853   354118.30389      707.53493   344233.71393       63.86214        0.05038     0.1337E-04
        0.86167        0.45069  1153850.97797      550.50482      116.26763        0.00860   353774.37102      706.99196   343850.27587       64.21818        0.05016     0.1332E-04
        0.85181        0.44933  1148531.28676      550.19993      115.27232        0.00868   353419.97213      706.43151   343456.33766       61.20814        0.04995     0.1328E-04
        0.84195        0.44794  1143145.99381      549.89012      114.27733        0.00875   353056.05825      705.85520   343052.79698       61.45248        0.04973     0.1323E-04
        0.83210        0.44653  1137699.38998      549.57552      113.28265        0.00883   352683.34987      705.26430   342640.33420       61.69789        0.04951     0.1319E-04
        0.82224        0.44510  1132193.86526      549.25621      112.28827        0.00891   352302.26990      704.65954   342219.34789       61.94450        0.04930     0.1314E-04
        0.81240        0.44364  1126629.30781      548.93214      111.29421        0.00899   351912.73140      704.04077   341789.74903       62.19236        0.04908     0.1310E-04
        0.80255        0.44217  1121004.37326      548.60317      110.30048        0.00907   351514.38455      703.40739   341351.19763       62.44144        0.04887     0.1305E-04
        0.79271        0.44067  1115317.83783      548.26917      109.30709        0.00915   351106.90109      702.75883   340903.37410       62.69174        0.04865     0.1301E-04
        0.78287        0.43915  1109568.44652      547.93002      108.31406        0.00923   350689.93533      702.09449   340445.94254       62.94324        0.04843     0.1296E-04
        0.77304        0.43760  1103755.02813      547.58558      107.32140        0.00932   350263.15236      701.41378   339978.57728       63.19592        0.04822     0.1292E-04
        0.76321        0.43603  1097876.45777      547.23573      106.32913        0.00940   349826.22114      700.71613   339500.95633       63.44978        0.04800     0.1288E-04
        0.75338        0.43444  1091931.73206      546.88034      105.33727        0.00949   349378.82471      700.00099   339012.77145       63.70480        0.04778     0.1283E-04
        0.74356        0.43282  1085920.48676      546.51932      104.34582        0.00958   348920.78091      699.26803   338513.84273       63.96101        0.04756     0.1279E-04
        0.73374        0.43118  1079842.72552      546.15260      103.35480        0.00968   348451.98053      698.51707   338004.05997       64.21843        0.04735     0.1275E-04
        0.72392        0.42951  1073698.48214      545.78012      102.36422        0.00977   347972.31990      697.74793   337483.31799       64.47709        0.04713     0.1271E-04
        0.71411        0.42781  1067487.85735      545.40180      101.37409        0.00986   347481.70567      696.96044   336951.52145       64.73705        0.04691     0.1266E-04
        0.70431        0.42609  1061210.98183      545.01758      100.38443        0.00996   346980.04870      696.15445   336408.57887       64.99832        0.04669     0.1262E-04
        0.69451        0.42434  1054867.94410      544.62739       99.39525        0.01006   346467.25022      695.32978   335854.38924       65.26097        0.04647     0.1258E-04
        0.68471        0.42256  1048458.75657      544.23115       98.40656        0.01016   345943.18762      694.48623   335288.82901       65.52501        0.04625     0.1254E-04
        0.67492        0.42076  1041983.07219      543.82876       97.41838        0.01027   345407.65509      693.62342   334711.69510       65.79047        0.04603     0.1250E-04
        0.66514        0.41892  1035440.55104      543.42011       96.43072        0.01037   344860.44311      692.74099   334122.78078       66.05737        0.04581     0.1246E-04
        0.65536        0.41706  1028830.89717      543.00510       95.44361        0.01048   344301.34465      691.83858   333521.88172       66.32572        0.04559     0.1241E-04
        0.64559        0.41517  1022153.89431      542.58362       94.45707        0.01059   343730.16620      690.91584   332908.80631       66.59555        0.04537     0.1237E-04
        0.63582        0.41325  1015409.33529      542.15558       93.47110        0.01070   343146.71008      689.97243   332283.35891       66.86689        0.04515     0.1233E-04
        0.62606        0.41130  1008597.02351      541.72085       92.48572        0.01081   342550.77460      689.00799   331645.33998       67.13975        0.04493     0.1229E-04
        0.61630        0.40932  1001716.73964      541.27934       91.50097        0.01093   341942.14609      688.02214   330994.53853       67.41415        0.04471     0.1225E-04
        0.60655        0.40731   994768.34749      540.83094       90.51686        0.01105   341320.62524      687.01453   330330.75700       67.69013        0.04449     0.1221E-04
        0.59681        0.40527   987751.69073      540.37552       89.53341        0.01117   340685.99803      685.98479   329653.78399       67.96770        0.04426     0.1217E-04
        0.58707        0.40320   980666.76560      539.91298       88.55063        0.01129   340038.08447      684.93258   328963.44008       68.24690        0.04404     0.1213E-04
        0.57734        0.40109   973513.48143      539.44321       87.56856        0.01142   339376.67527      683.85754   328259.51796       68.52775        0.04382     0.1209E-04
        0.56762        0.39895   966291.66510      538.96608       86.58722        0.01155   338701.53052      682.75924   327541.78134       68.81027        0.04360     0.1206E-04
        0.55790        0.39678   959001.13259      538.48146       85.60663        0.01168   338012.40460      681.63724   326809.98803       69.09449        0.04337     0.1202E-04
        0.54820        0.39457   951641.79125      537.98922       84.62682        0.01182   337309.06205      680.49113   326063.90564       69.38043        0.04315     0.1198E-04
        0.53850        0.39233   944213.63939      537.48925       83.64781        0.01195   336591.28217      679.32050   325303.31571       69.66812        0.04292     0.1194E-04
        0.52881        0.39005   936716.63445      536.98140       82.66963        0.01210   335858.82576      678.12493   324527.98202       69.95757        0.04270     0.1190E-04
        0.51912        0.38774   929150.66412      536.46554       81.69231        0.01224   335111.42581      676.90394   323737.64191       70.24882        0.04248     0.1186E-04
        0.50945        0.38539   921515.64836      535.94153       80.71588        0.01239   334348.81560      675.65706   322932.03274       70.54188        0.04225     0.1182E-04
        0.49978        0.38300   913811.60543      535.40922       79.74037        0.01254   333570.73941      674.38381   322110.90247       70.83677        0.04203     0.1179E-04
        0.49013        0.38058   906038.58751      534.86847       78.76581        0.01270   332776.94363      673.08374   321274.00073       71.13353        0.04180     0.1175E-04
        0.48048        0.37811   898196.61887      534.31913       77.79223        0.01285   331967.15339      671.75636   320421.05705       71.43217        0.04157     0.1171E-04
        0.47085        0.37561   890285.66838      533.76105       76.81968        0.01302   331141.07055      670.40113   319551.77857       71.73273        0.04135     0.1167E-04
        0.46122        0.37307   882305.84220      533.19407       75.84818        0.01318   330298.41564      669.01754   318665.89043       72.03520        0.04112     0.1164E-04
        0.45161        0.37048   874257.22698      532.61803       74.87777        0.01336   329438.89867      667.60507   317763.10719       72.33964        0.04089     0.1160E-04
        0.44201        0.36786   866139.95551      532.03276       73.90849        0.01353   328562.22149      666.16316   316843.13609       72.64604        0.04067     0.1156E-04
        0.43242        0.36519   857954.17792      531.43810       72.94039        0.01371   327668.08301      664.69128   315905.68108       72.95445        0.04044     0.1153E-04
        0.42284        0.36248   849699.97364      530.83388       71.97350        0.01389   326756.14240      663.18881   314950.40872       73.26486        0.04021     0.1149E-04
        0.41327        0.35973   841377.65902      530.21992       71.00787        0.01408   325826.11466      661.65521   313977.03805       73.57732        0.03999     0.1145E-04
        0.40372        0.35693   832987.45346      529.59604       70.04354        0.01428   324877.66721      660.08989   312985.24329       73.89184        0.03976     0.1142E-04
        0.39417        0.35409   824529.57614      528.96206       69.08056        0.01448   323910.45475      658.49220   311974.68626       74.20843        0.03953     0.1138E-04
        0.38465        0.35120   816004.30907      528.31778       68.11898        0.01468   322924.12899      656.86151   310945.02609       74.52713        0.03930     0.1134E-04
        0.37514        0.34826   807412.05726      527.66302       67.15886        0.01489   321918.36170      655.19721   309895.94071       74.84794        0.03907     0.1131E-04
        0.36564        0.34528   798753.20373      526.99759       66.20024        0.01511   320892.79878      653.49865   308827.08356       75.17089        0.03884     0.1127E-04
        0.35616        0.34225   790028.14367      526.32128       65.24318        0.01533   319847.06874      651.76515   307738.09161       75.49599        0.03861     0.1123E-04
        0.34669        0.33917   781237.28891      525.63387       64.28774        0.01556   318780.78441      649.99597   306628.58695       75.82327        0.03838     0.1120E-04
        0.33724        0.33603   772381.26933      524.93518       63.33398        0.01579   317693.60573      648.19049   305498.23605       76.15274        0.03815     0.1116E-04
        0.32781        0.33285   763460.56594      524.22497       62.38196        0.01603   316585.11896      646.34794   304346.63602       76.48441        0.03792     0.1113E-04
        0.31840        0.32961   754475.82686      523.50304       61.43175        0.01628   315454.94120      644.46761   303173.41293       76.81830        0.03769     0.1109E-04
        0.30900        0.32632   745427.72863      522.76915       60.48342        0.01653   314302.67716      642.54874   301978.18097       77.15442        0.03746     0.1106E-04
        0.29962        0.32297   736317.03486      522.02309       59.53704        0.01680   313127.92784      640.59060   300760.55115       77.49280        0.03723     0.1102E-04
        0.29027        0.31957   727144.43710      521.26462       58.59269        0.01707   311930.24639      638.59234   299520.08916       77.83343        0.03700     0.1099E-04
        0.28093        0.31611   717910.88353      520.49349       57.65043        0.01735   310709.23915      636.55322   298256.41110       78.17633        0.03677     0.1095E-04
        0.27162        0.31260   708617.28356      519.70948       56.71035        0.01763   309464.47411      634.47242   296969.09670       78.52152        0.03653     0.1092E-04
        0.26233        0.30902   699264.56838      518.91233       55.77255        0.01793   308195.49046      632.34906   295657.69889       78.86899        0.03630     0.1088E-04
        0.25306        0.30539   689853.87720      518.10179       54.83709        0.01824   306901.86866      630.18235   294321.80945       79.21876        0.03607     0.1085E-04
        0.24382        0.30169   680386.34974      517.27760       53.90408        0.01855   305583.15436      627.97141   292960.98756       79.57084        0.03584     0.1081E-04
        0.23460        0.29794   670863.15863      516.43951       52.97362        0.01888   304238.86883      625.71533   291574.76959       79.92521        0.03560     0.1078E-04
        0.22541        0.29411   661285.68985      515.58725       52.04579        0.01921   302868.57211      623.41327   290162.72860       80.28190        0.03537     0.1074E-04
        0.21624        0.29023   651655.31693      514.72055       51.12071        0.01956   301471.78327      621.06429   288724.39920       80.64089        0.03514     0.1071E-04
        0.20711        0.28627   641973.53145      513.83914       50.19848        0.01992   300048.01502      618.66745   287259.31075       81.00218        0.03490     0.1067E-04
        0.19800        0.28225   632241.94456      512.94274       49.27922        0.02029   298596.79607      616.22183   285767.00718       81.36578        0.03467     0.1064E-04
        0.18892        0.27817   622462.21709      512.03106       48.36304        0.02068   297117.61607      613.72644   284246.99677       81.73166        0.03444     0.1060E-04
        0.17988        0.27401   612636.20626      511.10383       47.45006        0.02107   295610.00323      611.18035   282698.82394       82.09983        0.03420     0.1057E-04
        0.17086        0.26978   602765.82335      510.16075       46.54041        0.02149   294073.45333      608.58257   281122.00339       82.47027        0.03397     0.1053E-04
        0.16189        0.26548   592853.10804      509.20153       45.63423        0.02191   292507.46281      605.93210   279516.05089       82.84296        0.03373     0.1050E-04
        0.15294        0.26110   582900.18424      508.22587       44.73165        0.02236   290911.51879      603.22792   277880.47355       83.21789        0.03350     0.1046E-04
        0.14404        0.25665   572909.37555      507.23349       43.83282        0.02281   289285.12048      600.46902   276214.79127       83.59503        0.03326     0.1043E-04
        0.13517        0.25213   562883.04756      506.22406       42.93788        0.02329   287627.74221      597.65437   274518.50050       83.97435        0.03303     0.1039E-04
        0.12635        0.24752   552823.78815      505.19730       42.04699        0.02378   285938.88364      594.78293   272791.12280       84.35583        0.03279     0.1036E-04
        0.11756        0.24284   542734.25212      504.15289       41.16032        0.02430   284218.01713      591.85364   271032.15469       84.73942        0.03256     0.1032E-04
        0.10882        0.23807   532617.31376      503.09054       40.27802        0.02483   282464.65340      588.86549   269241.12941       85.12510        0.03232     0.1029E-04
        0.10013        0.23323   522475.97766      502.00995       39.40027        0.02538   280678.28764      585.81745   267417.56711       85.51282        0.03209     0.1025E-04
        0.09148        0.22830   512313.37865      500.91080       38.52726        0.02596   278858.41893      582.70846   265560.99213       85.90252        0.03185     0.1022E-04
        0.08288        0.22329   502132.72103      499.79278       37.65917        0.02655   277004.49407      579.53739   263670.88167       86.29415        0.03162     0.1018E-04
        0.07433        0.21819   491937.42160      498.65558       36.79619        0.02718   275115.99064      576.30312   261746.74297       86.68762        0.03138     0.1015E-04
        0.06583        0.21300   481731.35642      497.49894       35.93853        0.02783   273192.56025      573.00488   259788.24694       87.08292        0.03114     0.1011E-04
        0.05739        0.20772   471518.65997      496.32259       35.08638        0.02850   271233.93648      569.64205   257795.14203       87.48003        0.03091     0.1008E-04
        0.04900        0.20236   461302.46462      495.12615       34.23998        0.02921   269239.16102      566.21267   255766.53443       87.87872        0.03067     0.1004E-04
        0.04067        0.19690   451085.62293      493.90917       33.39960        0.02994   267206.95123      562.71412   253701.23107       88.27863        0.03043     0.1001E-04
        0.03241        0.19135   440875.63308      492.67176       32.56535        0.03071   265138.84804      559.14923   251600.66771       88.68029        0.03020     0.9974E-05
        0.02421        0.18571   430681.37638      491.41419       31.73731        0.03151   263037.50103      555.52301   249467.30785       89.08461        0.02996     0.9939E-05
        0.01607        0.17998   420494.27701      490.13457       30.91621        0.03235   260893.60719      551.81727   247292.51460       89.48857        0.02972     0.9904E-05
        0.00801        0.17413   410309.07330      488.83128       30.10278        0.03322   258698.93899      548.01569   245068.66813       89.88938        0.02949     0.9869E-05
        1.00000        0.00995   192967.61886      452.21886      130.23027        0.00768    69118.86657      156.35883    67637.12488       14.55315 -9999990.00000    -0.1000E+02
        1.00000        0.01990   202810.77070      454.43773      130.23027        0.00768    74498.78167      168.05969    72941.45731       15.11647 -9999990.00000    -0.1000E+02
        1.00000        0.02985   213033.78741      456.65659      130.23027        0.00768    79909.05362      179.76380    78273.22972       15.69381 -9999990.00000    -0.1000E+02
        1.00000        0.03980   223646.44159      458.87546      130.23027        0.00768    85350.07986      191.47182    83632.76450       16.28533 -9999990.00000    -0.1000E+02
        1.00000        0.04975   234658.61132      461.09432      130.23027        0.00768    90822.25111      203.18440    89020.37653       16.89116 -9999990.00000    -0.1000E+02
        1.00000        0.05970   246080.34799      463.31318      130.23027        0.00768    96325.98494      214.90224    94436.40619       17.51145 -9999990.00000    -0.1000E+02
        1.00000        0.06965   257921.83831      465.53205      130.23027        0.00768   101861.70478      226.62603    99881.19871       18.14636 -9999990.00000    -0.1000E+02
        1.00000        0.07960   270193.41951      467.75091      130.23027        0.00768   107429.84624      238.35647   105355.11030       18.79602 -9999990.00000    -0.1000E+02
        1.00000        0.08955   282905.58445      469.96977      130.23027        0.00768   113030.85808      250.09428   110858.50916       19.46060 -9999990.00000    -0.1000E+02
        1.00000        0.09950   296068.98735      472.18864      130.23027        0.00768   118665.20319      261.84022   116391.77637       20.14024 -9999990.00000    -0.1000E+02
        1.00000        0.10945   309694.46390      474.40750      130.23027        0.00768   124333.36543      273.59504   121955.31257       20.83512 -9999990.00000    -0.1000E+02
        1.00000        0.11940   323792.98282      476.62637      130.23027        0.00768   130035.82791      285.35951   127549.51666       21.54538 -9999990.00000    -0.1000E+02
        1.00000        0.12935   338375.73538      478.84523      130.23027        0.00768   135773.10849      297.13443   133174.82056       22.27120 -9999990.00000    -0.1000E+02
        1.00000        0.13930   353454.08916      481.06409      130.23027        0.00768   141545.73831      308.92064   138831.66813       23.01275 -9999990.00000    -0.1000E+02
        1.00000        0.14925   369039.61028      483.28296      130.23027        0.00768   147354.26895      320.71899   144520.52213       23.77020 -9999990.00000    -0.1000E+02
        1.00000        0.15920   385144.07292      485.50182      130.23027        0.00768   153199.27394      332.53036   150241.86569       24.54373 -9999990.00000    -0.1000E+02
        1.00000        0.16915   401779.48669      487.72068      130.23027        0.00768   159081.35644      344.35570   155996.20972       25.33352 -9999990.00000    -0.1000E+02
        1.00000        0.17910   418958.04043      489.93955      130.23027        0.00768   165001.12727      356.19592   161784.07148       26.13977 -9999990.00000    -0.1000E+02
        1.00000        0.18905   436692.21481      492.15841      130.23027        0.00768   170959.24243      368.05205   167606.01113       26.96267 -9999990.00000    -0.1000E+02
        1.00000        0.19900   454994.72925      494.37727      130.23027        0.00768   176956.38160      379.92510   173462.61066       27.80243 -9999990.00000    -0.1000E+02
        1.00000        0.20895   473878.57289      496.59614      130.23027        0.00768   182993.25634      391.81617   179354.48191       28.65926 -9999990.00000    -0.1000E+02
        1.00000        0.21890   493357.02029      498.81500      130.23027        0.00768   189070.61267      403.72639   185282.26897       29.53337 -9999990.00000    -0.1000E+02
        1.00000        0.22885   513443.64871      501.03386      130.23027        0.00768   195189.23386      415.65695   191246.65083       30.42500 -9999990.00000    -0.1000E+02
        1.00000        0.23880   534152.37790      503.25273      130.23027        0.00768   201349.94970      427.60911   197248.35042       31.33437 -9999990.00000    -0.1000E+02
        1.00000        0.24875   555497.40678      505.47159      130.23027        0.00768   207553.61513      439.58415   203288.11364       32.26174        0.03731     0.1300E-04
        1.00000        0.25870   577493.36075      507.69046      130.23027        0.00768   213801.15118      451.58348   209366.74922       33.20736        0.03745     0.1304E-04
        1.00000        0.26865   600155.23377      509.90932      130.23027        0.00768   220093.52455      463.60855   215485.10872       34.17150        0.03760     0.1309E-04
        1.00000        0.27860   623498.43598      512.12818      130.23027        0.00768   226431.75855      475.66091   221644.09712       35.15443        0.03774     0.1313E-04
        1.00000        0.28855   647538.82379      514.34705      130.23027        0.00768   232816.93868      487.74221   227844.67817       36.15645        0.03789     0.1318E-04
        1.00000        0.29850   672292.73314      516.56591      130.23027        0.00768   239250.21898      499.85418   234087.88047       37.17784        0.03803     0.1322E-04
        1.00000        0.30845   697777.04261      518.78478      130.23027        0.00768   245732.83602      511.99872   240374.81098       38.21893        0.03818     0.1327E-04
        1.00000        0.31840   724009.11186      521.00364      130.23027        0.00768   252266.09161      524.17777   246706.63821       39.28004        0.03832     0.1331E-04
        1.00000        0.32835   751006.98219      523.22250      130.23027        0.00768   258851.40257      536.39351   253084.64045       40.36150        0.03847     0.1336E-04
        1.00000        0.33830   778789.32811      525.44137      130.23027        0.00768   265490.28775      548.64823   259510.19316       41.46364        0.03861     0.1340E-04
        1.00000        0.34825   807375.54377      527.66023      130.23027        0.00768   272184.39089      560.94447   265984.79113       42.58681        0.03876     0.1345E-04
        1.00000        0.35820   836785.81378      529.87909      130.23027        0.00768   278935.50145      573.28494   272510.06887       43.73135        0.03890     0.1349E-04
        1.00000        0.36815   867041.22721      532.09796      130.23027        0.00768   285745.58882      585.67270   279087.83380       44.89755        0.03905     0.1354E-04
        1.00000        0.37810   898163.75426      534.31682      130.23027        0.00768   292616.81135      598.11107   285720.07558       46.08571        0.07839     0.1358E-04
        1.00000        0.38805   930176.54892      536.53569      130.23027        0.00768   299551.60755      610.60386   292409.05494       47.29600        0.06381     0.1363E-04