 VARIABLES = "X",  "Y",  "P",  "T",  "D",  "V", "H",  "S", "U", "C", "K", "MU" 
 ZONE N=        4018 , E=        7766 , F=FEPOINT, ET=TRIANGLE
        1.00000        0.16822   400205.88978      487.51383       29.29403        0.03414   256508.43162      544.22546   242846.74290      104.35219        0.02925     0.9833E-05
        1.00000        0.00000   183494.70438      450.00000       29.29403        0.03414   113622.83298      255.44702   107358.93832       53.23241        0.02687     0.8966E-05
        0.00000        0.46765  1221642.45453      554.28659      130.23027        0.00768   357808.28474      713.29674   348427.65106       59.43907        0.05317     0.1400E-04
        0.00000        0.00000   183494.70438      450.00000      130.23027        0.00768    63768.92524      144.66056    62359.92329       14.00371 -9999990.00000    -0.1000E+02
        1.00000        0.15833   383709.99167      485.30714       29.29403        0.03414   247134.31070      526.11117   234035.73669       87.83216        0.02910     0.9783E-05
        1.00000        0.14843   367738.16945      483.10044       29.29403        0.03414   237893.70685      508.15313   225340.35737       85.39485        0.02895     0.9733E-05
        1.00000        0.13854   352278.66249      480.89374       29.29403        0.03414   228783.84344      490.34784   216758.22975       82.99364        0.02881     0.9682E-05
        1.00000        0.12864   337319.87466      478.68705       29.29403        0.03414   219802.02158      472.69190   208287.05079       80.62869        0.02866     0.9632E-05
        1.00000        0.11875   322850.45971      476.48035       29.29403        0.03414   210945.66824      455.18211   199924.63483       78.30014        0.02852     0.9581E-05
        1.00000        0.10885   308859.24911      474.27365       29.29403        0.03414   202212.29224      437.81540   191668.87190       76.00811        0.02837     0.9530E-05
        1.00000        0.09895   295335.27287      472.06696       29.29403        0.03414   193599.49551      420.58881   183517.73842       73.75273        0.02823     0.9479E-05
        1.00000        0.08906   282267.69754      469.86026       29.29403        0.03414   185104.93234      403.49948   175469.25851       71.53410        0.02809     0.9428E-05
        1.00000        0.07916   269645.90106      467.65357       29.29403        0.03414   176726.35600      386.54466   167521.54802       69.35231        0.02795     0.9377E-05
        1.00000        0.06927   257459.41105      465.44687       29.29403        0.03414   168461.57852      369.72172   159672.77650       67.20744        0.02781     0.9326E-05
        1.00000        0.05937   245697.92439      463.24018       29.29403        0.03414   160308.48287      353.02810   151921.17862       65.09958        0.02767     0.9275E-05
        1.00000        0.04948   234351.25459      461.03348       29.29403        0.03414   152264.98557      336.46128   144265.01862       63.02878        0.02754     0.9224E-05
        1.00000        0.03958   223409.39809      458.82678       29.29403        0.03414   144329.08194      320.01887   136702.63332       60.99510        0.02740     0.9172E-05
        1.00000        0.02969   212862.48172      456.62009       29.29403        0.03414   136498.80915      303.69850   129232.39694       58.99858        0.02726     0.9121E-05
        1.00000        0.01979   202700.78075      454.41339       29.29403        0.03414   128772.25867      287.49790   121852.73290       57.03928        0.02713     0.9069E-05
        1.00000        0.00990   192914.67446      452.20670       29.29403        0.03414   121147.54172      271.41481   114562.08083       55.11722        0.02700     0.9018E-05
        0.00982        0.46554  1213005.03033      553.81507      128.33683        0.00779   357324.32269      712.54383   347872.59308       58.07493        0.05276     0.1390E-04
        0.01963        0.46342  1204389.45055      553.34179      126.47124        0.00791   356840.80542      711.79256   347317.77521       58.51135        0.05236     0.1381E-04
        0.02944        0.46128  1195764.16483      552.86500      124.63341        0.00802   356351.27896      711.03171   346757.02824       58.94623        0.05197     0.1372E-04
        0.03925        0.45912  1187098.38463      552.38293      122.82323        0.00814   355849.25316      710.25002   346184.15661       59.37849        0.05158     0.1363E-04
        0.04905        0.45692  1178362.12814      551.89385      121.04061        0.00826   355328.19750      709.43608   345592.93462       59.80696        0.05119     0.1355E-04
        0.05884        0.45469  1169533.95753      551.39643      119.28536        0.00838   354783.11215      708.58116   344978.60669       60.23070        0.05081     0.1346E-04
        0.06862        0.45243  1160621.82156      550.89098      117.55701        0.00851   354214.89297      707.68673   344342.05100       60.64989        0.05044     0.1338E-04
        0.07840        0.45013  1151640.65923      550.37824      115.85503        0.00863   353625.92791      706.75688   343685.56842       61.06500        0.05007     0.1330E-04
        0.08817        0.44780  1142604.88787      549.85893      114.17888        0.00876   353018.59130      705.79568   343011.44374       61.47653        0.04971     0.1323E-04
        0.09793        0.44544  1133528.52044      549.33374      112.52804        0.00889   352395.26276      704.80722   342321.96416       61.88498        0.04935     0.1315E-04
        0.10768        0.44306  1124420.62549      548.80313      110.90204        0.00902   351757.36457      703.79393   341618.50115       62.29065        0.04900     0.1308E-04
        0.11743        0.44066  1115282.98319      548.26712      109.30050        0.00915   351104.80241      702.75559   340900.97956       62.69353        0.04865     0.1301E-04
        0.12718        0.43823  1106116.87578      547.72570      107.72306        0.00928   350437.37984      701.69180   340169.22704       63.09359        0.04830     0.1294E-04
        0.13692        0.43578  1096923.55233      547.17887      106.16935        0.00942   349754.89428      700.60217   339423.06557       63.49078        0.04796     0.1287E-04
        0.14665        0.43330  1087704.67481      546.62665      104.63901        0.00956   349057.23403      699.48644   338662.40405       63.88508        0.04763     0.1280E-04
        0.15637        0.43080  1078463.92370      546.06917      103.13165        0.00970   348344.74553      698.34517   337887.58739       64.27655        0.04730     0.1274E-04
        0.16609        0.42828  1069205.49885      545.50661      101.64689        0.00984   347617.91127      697.17913   337099.08974       64.66526        0.04697     0.1267E-04
        0.17581        0.42574  1059933.58948      544.93916      100.18437        0.00998   346877.23842      695.98917   336297.40814       65.05132        0.04665     0.1261E-04
        0.18552        0.42317  1050652.19088      544.36699       98.74371        0.01013   346123.21382      694.77609   335483.01988       65.43480        0.04633     0.1255E-04
        0.19522        0.42058  1041364.60703      543.79022       97.32456        0.01027   345356.19190      693.54046   334656.27571       65.81576        0.04601     0.1249E-04
        0.20492        0.41798  1032073.61475      543.20898       95.92657        0.01042   344576.42389      692.28267   333817.42783       66.19422        0.04570     0.1243E-04
        0.21461        0.41535  1022781.93886      542.62336       94.54942        0.01058   343784.16203      691.00310   332966.72939       66.57022        0.04539     0.1238E-04
        0.22430        0.41271  1013492.28690      542.03348       93.19275        0.01073   342979.67554      689.70219   332104.44905       66.94379        0.04509     0.1232E-04
        0.23398        0.41004  1004207.31291      541.43945       91.85626        0.01089   342163.23180      688.38035   331230.85383       67.31495        0.04479     0.1227E-04
        0.24366        0.40736   994929.68622      540.84138       90.53960        0.01104   341335.12456      687.03805   330346.23511       67.68373        0.04449     0.1221E-04
        0.25333        0.40466   985661.95192      540.23937       89.24247        0.01121   340495.63364      685.67573   329450.87078       68.05016        0.04420     0.1216E-04
        0.26300        0.40194   976406.73706      539.63355       87.96456        0.01137   339645.07176      684.29390   328545.06999       68.41428        0.04391     0.1211E-04
        0.27266        0.39921   967166.30761      539.02402       86.70555        0.01153   338783.68364      682.89293   327629.07667       68.77610        0.04362     0.1206E-04
        0.28232        0.39646   957942.98122      538.41087       85.46514        0.01170   337911.74260      681.47327   326703.16167       69.13566        0.04334     0.1201E-04
        0.29197        0.39370   948738.92442      537.79421       84.24305        0.01187   337029.49779      680.03530   325767.57271       69.49296        0.04306     0.1196E-04
        0.30162        0.39092   939556.25525      537.17414       83.03898        0.01204   336137.20393      678.57944   324822.56234       69.84804        0.04279     0.1192E-04
        0.31127        0.38812   930397.01076      536.55075       81.85264        0.01222   335235.10600      677.10606   323868.37387       70.20089        0.04251     0.1187E-04
        0.32091        0.38531   921263.11600      535.92413       80.68375        0.01239   334323.43950      675.61555   322905.24103       70.55155        0.04224     0.1182E-04
        0.33054        0.38249   912156.51524      535.29439       79.53205        0.01257   333402.45586      674.10829   321933.41263       70.90002        0.04198     0.1178E-04
        0.34018        0.37965   903078.97835      534.66160       78.39725        0.01276   332472.37763      672.58464   320953.10966       71.24632        0.04171     0.1173E-04
        0.34980        0.37680   894032.29574      534.02585       77.27910        0.01294   331533.44749      671.04499   319964.57185       71.59047        0.04145     0.1169E-04
        0.35943        0.37393   885018.11927      533.38724       76.17733        0.01313   330585.88134      669.48967   318968.01359       71.93247        0.04120     0.1165E-04
        0.36905        0.37106   876038.09060      532.74585       75.09168        0.01332   329629.90689      667.91906   317963.66006       72.27233        0.04094     0.1161E-04
        0.37867        0.36817   867093.74765      532.10176       74.02191        0.01351   328665.74186      666.33349   316951.72645       72.61007        0.04069     0.1157E-04
        0.38828        0.36527   858186.61910      531.45505       72.96776        0.01370   327693.60687      664.73332   315932.43094       72.94569        0.04045     0.1153E-04
        0.39789        0.36236   849318.07168      530.80581       71.92899        0.01390   326713.69581      663.11884   314905.96575       73.27921        0.04020     0.1149E-04
        0.40750        0.35944   840489.52603      530.15411       70.90536        0.01410   325726.23079      661.49043   313872.54962       73.61063        0.03996     0.1145E-04
        0.41710        0.35650   831702.33385      529.50004       69.89664        0.01431   324731.42157      659.84840   312832.38965       73.93997        0.03972     0.1141E-04
        0.42671        0.35356   822957.69065      528.84366       68.90259        0.01451   323729.45235      658.19306   311785.66812       74.26722        0.03949     0.1137E-04
        0.43630        0.35061   814256.87568      528.18506       67.92299        0.01472   322720.53795      656.52474   310732.59635       74.59240        0.03925     0.1134E-04
        0.44590        0.34764   805600.98542      527.52431       66.95762        0.01493   321704.85612      654.84373   309673.35014       74.91551        0.03902     0.1130E-04
        0.45549        0.34467   796991.19964      526.86148       66.00625        0.01515   320682.61673      653.15036   308608.13567       75.23657        0.03879     0.1126E-04
        0.46508        0.34169   788428.49071      526.19664       65.06867        0.01537   319653.98400      651.44490   307537.11546       75.55556        0.03857     0.1123E-04
        0.47467        0.33870   779913.94317      525.52986       64.14466        0.01559   318619.16269      649.72767   306460.49038       75.87252        0.03835     0.1119E-04
        0.48425        0.33570   771448.49489      524.86122       63.23403        0.01581   317578.32857      647.99895   305378.43347       76.18742        0.03813     0.1116E-04
        0.49383        0.33269   763033.05366      524.19077       62.33655        0.01604   316531.65425      646.25903   304291.11482       76.50030        0.03791     0.1113E-04
        0.50341        0.32968   754668.52513      523.51859       61.45204        0.01627   315479.32857      644.50820   303198.71929       76.81114        0.03770     0.1109E-04
        0.51299        0.32666   746355.72969      522.84474       60.58030        0.01651   314421.51709      642.74673   302101.40998       77.11995        0.03748     0.1106E-04
        0.52256        0.32363   738095.43230      522.16929       59.72112        0.01674   313358.38458      640.97488   300999.34866       77.42675        0.03727     0.1103E-04
        0.53213        0.32059   729888.45163      521.49230       58.87432        0.01699   312290.12129      639.19297   299892.72108       77.73153        0.03707     0.1100E-04
        0.54170        0.31755   721735.41663      520.81383       58.03970        0.01723   311216.86451      637.40121   298781.66289       78.03430        0.03686     0.1097E-04
        0.55127        0.31450   713637.03840      520.13394       57.21710        0.01748   310138.79027      635.59988   297666.34599       78.33506        0.03666     0.1093E-04
        0.56084        0.31145   705593.97463      519.45270       56.40631        0.01773   309056.06588      633.78926   296546.93395       78.63383        0.03646     0.1090E-04
        0.57040        0.30839   697606.77915      518.77016       55.60717        0.01798   307968.83426      631.96958   295423.56707       78.93060        0.03626     0.1087E-04
        0.57996        0.30532   689676.00862      518.08638       54.81949        0.01824   306877.24823      630.14109   294296.39480       79.22537        0.03607     0.1084E-04
        0.58952        0.30225   681802.24721      517.40143       54.04311        0.01850   305781.48088      628.30406   293165.58553       79.51817        0.03587     0.1082E-04
        0.59908        0.29917   673985.95280      516.71535       53.27786        0.01877   304681.66723      626.45872   292031.27170       79.80898        0.03568     0.1079E-04
        0.60864        0.29609   666227.58712      516.02820       52.52356        0.01904   303577.95875      624.60532   290893.60079       80.09781        0.03549     0.1076E-04
        0.61820        0.29300   658527.56526      515.34004       51.78005        0.01931   302470.49132      622.74406   289752.70583       80.38468        0.03530     0.1073E-04
        0.62775        0.28991   650886.28157      514.65092       51.04717        0.01959   301359.40868      620.87520   288608.72672       80.66957        0.03512     0.1070E-04
        0.63730        0.28682   643304.13439      513.96089       50.32477        0.01987   300244.86295      618.99898   287461.81119       80.95250        0.03494     0.1068E-04
        0.64686        0.28372   635781.42845      513.27000       49.61268        0.02016   299126.97802      617.11560   286312.08034       81.23348        0.03476     0.1065E-04
        0.65641        0.28062   628318.49823      512.57831       48.91075        0.02045   298005.90150      615.22531   285159.67723       81.51250        0.03458     0.1062E-04
        0.66596        0.27752   620915.61107      511.88587       48.21884        0.02074   296881.75806      613.32830   284004.72349       81.78957        0.03440     0.1060E-04
        0.67551        0.27441   613573.01660      511.19273       47.53678        0.02104   295754.68030      611.42481   282847.34765       82.06470        0.03423     0.1057E-04
        0.68505        0.27130   606290.94701      510.49892       46.86444        0.02134   294624.79701      609.51503   281687.67480       82.33789        0.03405     0.1054E-04
        0.69460        0.26818   599069.61727      509.80451       46.20167        0.02164   293492.23988      607.59920   280525.83254       82.60915        0.03388     0.1052E-04
        0.70415        0.26507   591909.17961      509.10954       45.54832        0.02195   292357.12587      605.67749   279361.93429       82.87848        0.03371     0.1049E-04
        0.71369        0.26195   584809.81653      508.41406       44.90427        0.02227   291219.58574      603.75014   278196.10663       83.14589        0.03354     0.1047E-04
        0.72324        0.25883   577771.64910      507.71811       44.26937        0.02259   290079.73711      601.81734   277028.46344       83.41138        0.03338     0.1044E-04
        0.73278        0.25570   570794.73929      507.02173       43.64349        0.02291   288937.68093      599.87925   275859.10271       83.67495        0.03322     0.1042E-04
        0.74232        0.25258   563879.24647      506.32497       43.02649        0.02324   287793.56227      597.93612   274688.16399       83.93662        0.03305     0.1040E-04
        0.75187        0.24945   557025.16055      505.62787       42.41824        0.02357   286647.46477      595.98808   273515.72880       84.19638        0.03289     0.1037E-04
        0.76141        0.24633   550232.56884      504.93048       41.81862        0.02391   285499.51974      594.03536   272341.92332       84.45424        0.03273     0.1035E-04
        0.77095        0.24320   543501.50120      504.23284       41.22750        0.02426   284349.84004      592.07815   271166.85636       84.71022        0.03258     0.1033E-04
        0.78049        0.24007   536831.95351      503.53498       40.64476        0.02460   283198.52894      590.11662   269990.62762       84.96430        0.03242     0.1030E-04
        0.79004        0.23694   530223.90986      502.83695       40.07026        0.02496   282045.69610      588.15097   268813.34241       85.21650        0.03227     0.1028E-04
        0.79958        0.23381   523677.30116      502.13879       39.50390        0.02531   280891.42539      586.18131   267635.08211       85.46683        0.03212     0.1026E-04
        0.80912        0.23068   517192.13094      501.44053       38.94555        0.02568   279735.84690      584.20790   266455.97102       85.71528        0.03197     0.1024E-04
        0.81866        0.22754   510768.28786      500.74222       38.39510        0.02604   278579.04116      582.23084   265276.08695       85.96187        0.03182     0.1021E-04
        0.82820        0.22441   504405.71254      500.04389       37.85243        0.02642   277421.11710      580.25034   264095.53432       86.20659        0.03167     0.1019E-04
        0.83774        0.22128   498104.33475      499.34558       37.31743        0.02680   276262.18664      578.26659   262914.42018       86.44947        0.03152     0.1017E-04
        0.84728        0.21815   491864.01406      498.64733       36.78998        0.02718   275102.33364      576.27973   261732.82510       86.69049        0.03138     0.1015E-04
        0.85682        0.21502   485684.58222      497.94916       36.26999        0.02757   273941.63373      574.28989   260550.82182       86.92967        0.03123     0.1013E-04
        0.86637        0.21189   479565.86366      497.25111       35.75733        0.02797   272780.16350      572.29719   259368.48387       87.16701        0.03109     0.1011E-04
        0.87591        0.20876   473507.65641      496.55321       35.25191        0.02837   271617.98761      570.30174   258185.87368       87.40250        0.03095     0.1009E-04
        0.88545        0.20563   467509.90479      495.85551       34.75362        0.02877   270455.25304      568.30382   257003.13062       87.63616        0.03081     0.1007E-04
        0.89499        0.20250   461572.55992      495.15804       34.26235        0.02919   269292.12136      566.30370   255820.40748       87.86802        0.03068     0.1005E-04
        0.90454        0.19938   455695.61641      494.46088       33.77800        0.02961   268128.77839      564.30174   254637.88002       88.09812        0.03054     0.1003E-04
        0.91408        0.19625   449878.70235      493.76402       33.30048        0.03003   266965.22908      562.29792   253455.55401       88.32644        0.03041     0.1001E-04
        0.92362        0.19313   444121.07848      493.06745       32.82969        0.03046   265801.27858      560.29187   252273.24795       88.55291        0.03027     0.9986E-05
        0.93317        0.19001   438421.92870      492.37112       32.36554        0.03090   264636.67613      558.28309   251090.72817       88.77744        0.03014     0.9966E-05
        0.94271        0.18688   432780.75987      491.67502       31.90793        0.03134   263471.34539      556.27142   249907.92419       88.99999        0.03001     0.9946E-05
        0.95226        0.18376   427198.82863      490.97937       31.45677        0.03179   262306.18735      554.25856   248725.68149       89.22080        0.02988     0.9927E-05
        0.96180        0.18065   421677.97961      490.28446       31.01193        0.03225   261142.48960      552.24699   247545.20714       89.44022        0.02975     0.9908E-05
        0.97135        0.17754   416219.89875      489.59059       30.57331        0.03271   259981.50724      550.23914   246367.67741       89.65858        0.02962     0.9889E-05
        0.98090        0.17443   410823.97585      488.89775       30.14083        0.03318   258823.21379      548.23494   245193.06763       89.87587        0.02950     0.9870E-05
        0.99045        0.17133   405487.03978      488.20562       29.71443        0.03365   257666.07048      546.23144   244019.93632       90.09164        0.02937     0.9852E-05
        0.00000        0.00995   192967.61886      452.21886      130.23027        0.00768    69118.86649      156.35883    67637.12481       14.55315 -9999990.00000    -0.1000E+02
        0.00000        0.01990   202810.77070      454.43773      130.23027        0.00768    74498.78159      168.05969    72941.45724       15.11647 -9999990.00000    -0.1000E+02
        0.00000        0.02985   213033.78741      456.65659      130.23027        0.00768    79909.05354      179.76380    78273.22964       15.69381 -9999990.00000    -0.1000E+02
        0.00000        0.03980   223646.44159      458.87546      130.23027        0.00768    85350.07978      191.47182    83632.76442       16.28533 -9999990.00000    -0.1000E+02
        0.00000        0.04975   234658.61132      461.09432      130.23027        0.00768    90822.25102      203.18440    89020.37645       16.89116 -9999990.00000    -0.1000E+02
        0.00000        0.05970   246080.34799      463.31318      130.23027        0.00768    96325.98484      214.90224    94436.40611       17.51145 -9999990.00000    -0.1000E+02
        0.00000        0.06965   257921.83831      465.53205      130.23027        0.00768   101861.70468      226.62602    99881.19862       18.14636 -9999990.00000    -0.1000E+02
        0.00000        0.07960   270193.41951      467.75091      130.23027        0.00768   107429.84614      238.35647   105355.11021       18.79602 -9999990.00000    -0.1000E+02
        0.00000        0.08955   282905.58445      469.96977      130.23027        0.00768   113030.85798      250.09428   110858.50907       19.46060 -9999990.00000    -0.1000E+02
        0.00000        0.09950   296068.98735      472.18864      130.23027        0.00768   118665.20309      261.84022   116391.77627       20.14024 -9999990.00000    -0.1000E+02
        0.00000        0.10945   309694.46390      474.40750      130.23027        0.00768   124333.36531      273.59504   121955.31246       20.83512 -9999990.00000    -0.1000E+02
        0.00000        0.11940   323792.98282      476.62637      130.23027        0.00768   130035.82779      285.35951   127549.51655       21.54538 -9999990.00000    -0.1000E+02
        0.00000        0.12935   338375.73538      478.84523      130.23027        0.00768   135773.10836      297.13443   133174.82045       22.27120 -9999990.00000    -0.1000E+02
        0.00000        0.13930   353454.08916      481.06409      130.23027        0.00768   141545.73818      308.92064   138831.66802       23.01275 -9999990.00000    -0.1000E+02
        0.00000        0.14925   369039.61028      483.28296      130.23027        0.00768   147354.26881      320.71899   144520.52201       23.77020 -9999990.00000    -0.1000E+02
        0.00000        0.15920   385144.07292      485.50182      130.23027        0.00768   153199.27381      332.53036   150241.86557       24.54373 -9999990.00000    -0.1000E+02
        0.00000        0.16915   401779.48669      487.72068      130.23027        0.00768   159081.35629      344.35570   155996.20960       25.33352 -9999990.00000    -0.1000E+02
        0.00000        0.17910   418958.04043      489.93955      130.23027        0.00768   165001.12712      356.19592   161784.07135       26.13977 -9999990.00000    -0.1000E+02
        0.00000        0.18905   436692.21481      492.15841      130.23027        0.00768   170959.24228      368.05205   167606.01099       26.96267 -9999990.00000    -0.1000E+02
        0.00000        0.19900   454994.72925      494.37727      130.23027        0.00768   176956.38144      379.92510   173462.61052       27.80243 -9999990.00000    -0.1000E+02
        0.00000        0.20895   473878.57289      496.59614      130.23027        0.00768   182993.25617      391.81617   179354.48176       28.65926 -9999990.00000    -0.1000E+02
        0.00000        0.21890   493357.02029      498.81500      130.23027        0.00768   189070.61250      403.72639   185282.26882       29.53337 -9999990.00000    -0.1000E+02
        0.00000        0.22885   513443.64871      501.03386      130.23027        0.00768   195189.23369      415.65695   191246.65068       30.42499 -9999990.00000    -0.1000E+02
        0.00000        0.23880   534152.37790      503.25273      130.23027        0.00768   201349.94952      427.60911   197248.35026       31.33437 -9999990.00000    -0.1000E+02
        0.00000        0.24875   555497.40678      505.47159      130.23027        0.00768   207553.61494      439.58415   203288.11347       32.26174        0.03731     0.1300E-04
        0.00000        0.25870   577493.36075      507.69046      130.23027        0.00768   213801.15099      451.58348   209366.74905       33.20736        0.03745     0.1304E-04
        0.00000        0.26865   600155.23377      509.90932      130.23027        0.00768   220093.52434      463.60855   215485.10854       34.17150        0.03760     0.1309E-04
        0.00000        0.27860   623498.43598      512.12818      130.23027        0.00768   226431.75834      475.66091   221644.09693       35.15443        0.03774     0.1313E-04
        0.00000        0.28855   647538.82379      514.34705      130.23027        0.00768   232816.93846      487.74221   227844.67798       36.15645        0.03789     0.1318E-04
        0.00000        0.29850   672292.73314      516.56591      130.23027        0.00768   239250.21876      499.85418   234087.88027       37.17784        0.03803     0.1322E-04
        0.00000        0.30845   697777.04261      518.78478      130.23027        0.00768   245732.83579      511.99871   240374.81077       38.21893        0.03818     0.1327E-04
        0.00000        0.31840   724009.11186      521.00364      130.23027        0.00768   252266.09137      524.17777   246706.63800       39.28004        0.03832     0.1331E-04
        0.00000        0.32835   751006.98219      523.22250      130.23027        0.00768   258851.40232      536.39351   253084.64023       40.36150        0.03847     0.1336E-04
        0.00000        0.33830   778789.32811      525.44137      130.23027        0.00768   265490.28749      548.64823   259510.19293       41.46364        0.03861     0.1340E-04
        0.00000        0.34825   807375.54377      527.66023      130.23027        0.00768   272184.39062      560.94447   265984.79090       42.58681        0.03876     0.1345E-04
        0.00000        0.35820   836785.81378      529.87909      130.23027        0.00768   278935.50117      573.28494   272510.06863       43.73135        0.03890     0.1349E-04
        0.00000        0.36815   867041.22721      532.09796      130.23027        0.00768   285745.58853      585.67270   279087.83355       44.89755        0.03905     0.1354E-04
        0.00000        0.37810   898163.75426      534.31682      130.23027        0.00768   292616.81105      598.11107   285720.07532       46.08571        0.07839     0.1358E-04
        0.00000        0.38805   930176.54892      536.53569      130.23027        0.00768   299551.60725      610.60386   292409.05467       47.29600        0.06381     0.1363E-04
        0.00000        0.39800   963103.97730      538.75455      130.23027        0.00768   306552.73916      623.15541   299157.34652       48.52848        0.05915     0.1367E-04
        0.00000        0.40795   996971.83713      540.97341      130.23027        0.00768   313623.40167      635.77079   305967.94769       49.78297        0.05707     0.1372E-04